TITLE="BATSRUS: Cut X Data, 2011/02/16 17:26:00.000"
VARIABLES ="X [R]", "Y [R]", "Z [R]", "Rho [g/cm^3]", "U_x [km/s]", "U_y [km/s]", "U_z [km/s]", "ti [K]", "te [K]", "B_x [Gauss]", "B_y [Gauss]", "B_z [Gauss]", "I01 [erg/cm^3]", "I02 [erg/cm^3]", "P [dyne/cm^2]", "pe [dyne/cm^2]", "E [erg/cm^3]", "ehot [erg/cm^3]", "qrad J/m^3/s", "qheat J/m^3/s", "refl 1/s", "J_x [`mA/m^2]", "J_y [`mA/m^2]", "J_z [`mA/m^2]"
ZONE T="2D X N=0000000             ", N=        2240, E=        1536, F=FEPOINT, ET=QUADRILATERAL
AUXDATA BLOCKS="         128   6 x 4 x 4"
AUXDATA BODYNUMDENSITY="150000000.00"
AUXDATA BORIS="F"
AUXDATA BTHETATILT="      0.0000"
AUXDATA CELLS="       12288"
AUXDATA CELLSUSED="       12288"
AUXDATA CODEVERSION="BATSRUS 9.90"
AUXDATA COORDSYSTEM="HGR"
AUXDATA COROTATION="F"
AUXDATA TypeFlux="Linde     "
AUXDATA GAMMA="      1.666667"
AUXDATA ITER="           0"
AUXDATA NPROC="           1"
AUXDATA ORDER="           2 minmod, beta= 1.00000"
AUXDATA RBODY="        1.00"
AUXDATA SAVEDATE="Save Date: 2022/10/10 at 15:10:52"
AUXDATA TIMEEVENT="2011/02/16 17:26:00.000"
AUXDATA TIMEEVENTSTART="2011/02/16 17:26:00.000"
AUXDATA TIMESIM="T= N/A"
AUXDATA TIMESIMSHORT=" SS"
  0.000000E+00  0.000000E+00 -1.000000E+00  1.459525E-13  2.220446E-16 -1.387779E-16  0.000000E+00  5.000000E+04  5.000000E+04 -1.161219E-01 -2.463424E-02  1.038897E+00  1.354287E-04  1.354287E-01  6.024053E-01  6.024053E-01  9.479477E-01  0.000000E+00 -4.239735E-03  1.435566E-08 -3.043808E-05  0.000000E+00  0.000000E+00  0.000000E+00
  0.000000E+00  0.000000E+00 -1.003918E+00  8.700198E-14  0.000000E+00 -1.318390E-16  0.000000E+00  5.000000E+04  5.000000E+04 -1.158141E-01 -2.465757E-02  1.033855E+00  9.740042E-05  9.740042E-02  3.590925E-01  3.590925E-01  5.825502E-01  0.000000E+00 -2.198174E-03  1.190729E-08 -3.809263E-05  0.000000E+00  0.000000E+00  0.000000E+00
  0.000000E+00  0.000000E+00 -1.007836E+00  1.675615E-14  0.000000E+00 -1.457168E-16  0.000000E+00  5.000000E+04  5.000000E+04 -1.151987E-01 -2.470424E-02  1.023772E+00  4.278405E-05  4.278405E-02  6.915943E-02  6.915943E-02  1.467980E-01  0.000000E+00 -8.127388E-05  7.855547E-09 -5.714016E-05  0.000000E+00  0.000000E+00  0.000000E+00
  0.000000E+00  0.000000E+00 -1.011754E+00  3.268714E-15  2.220446E-16 -1.526557E-16  0.000000E+00  5.000000E+04  5.000000E+04 -1.145832E-01 -2.475090E-02  1.013689E+00  1.891367E-05  1.891367E-02  1.349131E-02  1.349131E-02  6.245174E-02  0.000000E+00 -3.082931E-06  5.198797E-09 -8.543636E-05  0.000000E+00  0.000000E+00  0.000000E+00
  0.000000E+00  0.000000E+00 -1.015672E+00  6.491286E-16 -1.110223E-16 -1.804112E-16 -4.073221E+00  7.750000E+05  7.750000E+05 -1.139677E-01 -2.479757E-02  1.003605E+00  8.454578E-06  8.454578E-03  1.594518E-02  1.594518E-02  6.533399E-02  0.000000E+00 -4.183786E-07  5.848860E-08 -3.120577E-03  0.000000E+00  0.000000E+00  0.000000E+00
  0.000000E+00  0.000000E+00 -1.019590E+00  2.184772E-16 -2.220446E-16 -1.110223E-16 -8.231928E+00  1.500000E+06  1.500000E+06 -1.133237E-01 -2.484640E-02  9.930547E-01  5.239580E-06  5.239580E-03  2.705233E-02  2.705233E-02  8.116711E-02  0.000000E+00 -5.889007E-07  1.121123E-07 -3.080163E-03  0.000000E+00  0.000000E+00  0.000000E+00
  0.000000E+00  0.000000E+00 -1.025936E+00  2.076285E-16  0.000000E+00 -1.387779E-16 -8.541279E+00  1.500000E+06  1.500000E+06 -1.121234E-01 -2.493741E-02  9.733898E-01  5.107101E-06  5.107101E-03  2.570901E-02  2.570901E-02  7.757244E-02  0.000000E+00 -5.324788E-07  1.095851E-07 -2.647961E-05  0.000000E+00  0.000000E+00  0.000000E+00
  0.000000E+00  1.950903E-01 -9.807853E-01  1.459525E-13 -4.768700E+00  3.330669E-16  0.000000E+00  5.000000E+04  5.000000E+04 -1.311908E-01 -2.974277E-01  9.706447E-01  1.354287E-04  1.354287E-01  6.024053E-01  6.024053E-01  9.462386E-01  0.000000E+00 -4.239735E-03  1.421039E-08 -3.013007E-05  0.000000E+00  0.000000E+00  0.000000E+00
  0.000000E+00  1.958547E-01 -9.846279E-01  8.700198E-14 -4.778024E+00  3.330669E-16  0.000000E+00  5.000000E+04  5.000000E+04 -1.308448E-01 -2.957806E-01  9.660414E-01  9.740042E-05  9.740042E-02  3.590925E-01  3.590925E-01  5.808609E-01  0.000000E+00 -2.198174E-03  1.178702E-08 -3.770823E-05  0.000000E+00  0.000000E+00  0.000000E+00
  0.000000E+00  1.966190E-01 -9.884706E-01  1.675615E-14 -4.796671E+00  2.775558E-16  0.000000E+00  5.000000E+04  5.000000E+04 -1.301528E-01 -2.924864E-01  9.568347E-01  4.278405E-05  4.278405E-02  6.915943E-02  6.915943E-02  1.451480E-01  0.000000E+00 -8.127388E-05  7.776572E-09 -5.656626E-05  0.000000E+00  0.000000E+00  0.000000E+00
  0.000000E+00  1.973834E-01 -9.923133E-01  3.268714E-15 -4.815318E+00  2.775558E-16  0.000000E+00  5.000000E+04  5.000000E+04 -1.294608E-01 -2.891922E-01  9.476280E-01  1.891367E-05  1.891367E-02  1.349131E-02  1.349131E-02  6.084064E-02  0.000000E+00 -3.082931E-06  5.146781E-09 -8.458237E-05  0.000000E+00  0.000000E+00  0.000000E+00
  0.000000E+00  1.981478E-01 -9.961560E-01  6.491286E-16 -4.833965E+00  7.908196E-01 -3.994955E+00  7.750000E+05  7.750000E+05 -1.287688E-01 -2.858980E-01  9.384214E-01  8.454578E-06  8.454578E-03  1.594518E-02  1.594518E-02  6.376138E-02  0.000000E+00 -4.183786E-07  5.790792E-08 -3.089599E-03  0.000000E+00  0.000000E+00  0.000000E+00
  0.000000E+00  1.989121E-01 -9.999987E-01  2.184772E-16 -4.853477E+00  1.598236E+00 -8.073753E+00  1.500000E+06  1.500000E+06 -1.280448E-01 -2.824512E-01  9.287880E-01  5.239580E-06  5.239580E-03  2.705233E-02  2.705233E-02  7.963430E-02  0.000000E+00 -5.889007E-07  1.110025E-07 -3.049847E-03  0.000000E+00  0.000000E+00  0.000000E+00
  0.000000E+00  2.001503E-01 -1.006223E+00  2.076285E-16 -4.889844E+00  1.658297E+00 -8.377161E+00  1.500000E+06  1.500000E+06 -1.266953E-01 -2.760267E-01  9.108326E-01  5.107101E-06  5.107101E-03  2.570901E-02  2.570901E-02  7.611224E-02  0.000000E+00 -5.324788E-07  1.085115E-07 -2.604582E-05  0.000000E+00  0.000000E+00  0.000000E+00
  0.000000E+00  3.826834E-01 -9.238795E-01  1.459525E-13 -9.354141E+00  6.106227E-16  0.000000E+00  5.000000E+04  5.000000E+04 -1.866812E-01 -5.013597E-01  7.906015E-01  1.354287E-04  1.354287E-01  6.024053E-01  6.024053E-01  9.406641E-01  0.000000E+00 -4.239735E-03  1.371671E-08 -2.908333E-05  0.000000E+00  0.000000E+00  0.000000E+00
  0.000000E+00  3.841828E-01 -9.274992E-01  8.700198E-14 -9.372430E+00  6.661338E-16  0.000000E+00  5.000000E+04  5.000000E+04 -1.856714E-01 -4.989067E-01  7.873841E-01  9.740042E-05  9.740042E-02  3.590925E-01  3.590925E-01  5.753725E-01  0.000000E+00 -2.198174E-03  1.137959E-08 -3.640817E-05  0.000000E+00  0.000000E+00  0.000000E+00
  0.000000E+00  3.856821E-01 -9.311190E-01  1.675615E-14 -9.409008E+00  5.551115E-16  0.000000E+00  5.000000E+04  5.000000E+04 -1.836517E-01 -4.940005E-01  7.809493E-01  4.278405E-05  4.278405E-02  6.915943E-02  6.915943E-02  1.398308E-01  0.000000E+00 -8.127388E-05  7.511212E-09 -5.464116E-05  0.000000E+00  0.000000E+00  0.000000E+00
  0.000000E+00  3.871815E-01 -9.347387E-01  3.268714E-15 -9.445586E+00  5.551115E-16  0.000000E+00  5.000000E+04  5.000000E+04 -1.816321E-01 -4.890944E-01  7.745145E-01  1.891367E-05  1.891367E-02  1.349131E-02  1.349131E-02  5.569239E-02  0.000000E+00 -3.082931E-06  4.973486E-09 -8.174218E-05  0.000000E+00  0.000000E+00  0.000000E+00
  0.000000E+00  3.886808E-01 -9.383585E-01  6.491286E-16 -9.482164E+00  1.551248E+00 -3.763166E+00  7.750000E+05  7.750000E+05 -1.796125E-01 -4.841883E-01  7.680797E-01  8.454578E-06  8.454578E-03  1.594518E-02  1.594518E-02  5.877992E-02  0.000000E+00 -4.183786E-07  5.600013E-08 -2.987839E-03  0.000000E+00  0.000000E+00  0.000000E+00
  0.000000E+00  3.901801E-01 -9.419782E-01  2.184772E-16 -9.520438E+00  3.135053E+00 -7.605309E+00  1.500000E+06  1.500000E+06 -1.774993E-01 -4.790547E-01  7.613466E-01  5.239580E-06  5.239580E-03  2.705233E-02  2.705233E-02  7.482500E-02  0.000000E+00 -5.889007E-07  1.073761E-07 -2.957948E-03  0.000000E+00  0.000000E+00  0.000000E+00
  0.000000E+00  3.926089E-01 -9.478417E-01  2.076285E-16 -9.591774E+00  3.252867E+00 -7.891113E+00  1.500000E+06  1.500000E+06 -1.735606E-01 -4.694865E-01  7.487972E-01  5.107101E-06  5.107101E-03  2.570901E-02  2.570901E-02  7.161569E-02  0.000000E+00 -5.324788E-07  1.050694E-07 -4.565751E-05  0.000000E+00  0.000000E+00  0.000000E+00
  0.000000E+00  5.555702E-01 -8.314696E-01  1.459525E-13 -1.358011E+01  8.881784E-16  0.000000E+00  5.000000E+04  5.000000E+04 -2.562889E-01 -6.409801E-01  5.881064E-01  1.354287E-04  1.354287E-01  6.024053E-01  6.024053E-01  9.371835E-01  0.000000E+00 -4.239735E-03  1.337623E-08 -2.836142E-05  0.000000E+00  0.000000E+00  0.000000E+00
  0.000000E+00  5.577469E-01 -8.347272E-01  8.700198E-14 -1.360666E+01  8.881784E-16  0.000000E+00  5.000000E+04  5.000000E+04 -2.544269E-01 -6.382479E-01  5.857813E-01  9.740042E-05  9.740042E-02  3.590925E-01  3.590925E-01  5.719218E-01  0.000000E+00 -2.198174E-03  1.109717E-08 -3.550464E-05  0.000000E+00  0.000000E+00  0.000000E+00
  0.000000E+00  5.599236E-01 -8.379849E-01  1.675615E-14 -1.365976E+01  8.881784E-16  0.000000E+00  5.000000E+04  5.000000E+04 -2.507029E-01 -6.327836E-01  5.811310E-01  4.278405E-05  4.278405E-02  6.915943E-02  6.915943E-02  1.364396E-01  0.000000E+00 -8.127388E-05  7.324866E-09 -5.328568E-05  0.000000E+00  0.000000E+00  0.000000E+00
  0.000000E+00  5.621004E-01 -8.412426E-01  3.268714E-15 -1.371287E+01  8.881784E-16  0.000000E+00  5.000000E+04  5.000000E+04 -2.469790E-01 -6.273192E-01  5.764807E-01  1.891367E-05  1.891367E-02  1.349131E-02  1.349131E-02  5.236033E-02  0.000000E+00 -3.082931E-06  4.850150E-09 -7.971527E-05  0.000000E+00  0.000000E+00  0.000000E+00
  0.000000E+00  5.642771E-01 -8.445003E-01  6.491286E-16 -1.376597E+01  2.252064E+00 -3.386760E+00  7.750000E+05  7.750000E+05 -2.432551E-01 -6.218548E-01  5.718305E-01  8.454578E-06  8.454578E-03  1.594518E-02  1.594518E-02  5.550665E-02  0.000000E+00 -4.183786E-07  5.461243E-08 -2.913800E-03  0.000000E+00  0.000000E+00  0.000000E+00
  0.000000E+00  5.664538E-01 -8.477580E-01  2.184772E-16 -1.382153E+01  4.551392E+00 -6.844598E+00  1.500000E+06  1.500000E+06 -2.393585E-01 -6.161372E-01  5.669646E-01  5.239580E-06  5.239580E-03  2.705233E-02  2.705233E-02  7.161285E-02  0.000000E+00 -5.889007E-07  1.047161E-07 -2.891232E-03  0.000000E+00  0.000000E+00  0.000000E+00
  0.000000E+00  5.699797E-01 -8.530350E-01  2.076285E-16 -1.392510E+01  4.722431E+00 -7.101814E+00  1.500000E+06  1.500000E+06 -2.320959E-01 -6.054803E-01  5.578954E-01  5.107101E-06  5.107101E-03  2.570901E-02  2.570901E-02  6.851616E-02  0.000000E+00 -5.324788E-07  1.024696E-07 -5.075743E-05  0.000000E+00  0.000000E+00  0.000000E+00
  0.000000E+00  7.071068E-01 -7.071068E-01  1.459525E-13 -1.728420E+01  1.110223E-15  0.000000E+00  5.000000E+04  5.000000E+04 -2.840064E-01 -7.576714E-01  3.455429E-01  1.354287E-04  1.354287E-01  6.024053E-01  6.024053E-01  9.357034E-01  0.000000E+00 -4.239735E-03  1.321726E-08 -2.802435E-05  0.000000E+00  0.000000E+00  0.000000E+00
  0.000000E+00  7.098771E-01 -7.098771E-01  8.700198E-14 -1.731799E+01  9.992007E-16  0.000000E+00  5.000000E+04  5.000000E+04 -2.820186E-01 -7.541563E-01  3.439260E-01  9.740042E-05  9.740042E-02  3.590925E-01  3.590925E-01  5.704200E-01  0.000000E+00 -2.198174E-03  1.096294E-08 -3.507137E-05  0.000000E+00  0.000000E+00  0.000000E+00
  0.000000E+00  7.126476E-01 -7.126476E-01  1.675615E-14 -1.738558E+01  9.992007E-16  0.000000E+00  5.000000E+04  5.000000E+04 -2.780432E-01 -7.471262E-01  3.406922E-01  4.278405E-05  4.278405E-02  6.915943E-02  6.915943E-02  1.348950E-01  0.000000E+00 -8.127388E-05  7.232352E-09 -5.260686E-05  0.000000E+00  0.000000E+00  0.000000E+00
  0.000000E+00  7.154180E-01 -7.154180E-01  3.268714E-15 -1.745317E+01  1.054712E-15  0.000000E+00  5.000000E+04  5.000000E+04 -2.740677E-01 -7.400961E-01  3.374583E-01  1.891367E-05  1.891367E-02  1.349131E-02  1.349131E-02  5.077407E-02  0.000000E+00 -3.082931E-06  4.786249E-09 -7.865621E-05  0.000000E+00  0.000000E+00  0.000000E+00
  0.000000E+00  7.181885E-01 -7.181885E-01  6.491286E-16 -1.752075E+01  2.866333E+00 -2.880202E+00  7.750000E+05  7.750000E+05 -2.700923E-01 -7.330661E-01  3.342245E-01  8.454578E-06  8.454578E-03  1.594518E-02  1.594518E-02  5.387970E-02  0.000000E+00 -4.183786E-07  5.384523E-08 -2.872836E-03  0.000000E+00  0.000000E+00  0.000000E+00
  0.000000E+00  7.209589E-01 -7.209589E-01  2.184772E-16 -1.759147E+01  5.792823E+00 -5.820852E+00  1.500000E+06  1.500000E+06 -2.659326E-01 -7.257101E-01  3.308408E-01  5.239580E-06  5.239580E-03  2.705233E-02  2.705233E-02  6.994444E-02  0.000000E+00 -5.889007E-07  1.032103E-07 -2.857813E-03  0.000000E+00  0.000000E+00  0.000000E+00
  0.000000E+00  7.254466E-01 -7.254466E-01  2.076285E-16 -1.772329E+01  6.010514E+00 -6.039597E+00  1.500000E+06  1.500000E+06 -2.581795E-01 -7.119997E-01  3.245340E-01  5.107101E-06  5.107101E-03  2.570901E-02  2.570901E-02  6.677428E-02  0.000000E+00 -5.324788E-07  1.008794E-07 -5.673035E-05  0.000000E+00  0.000000E+00  0.000000E+00
  0.000000E+00  0.000000E+00 -1.025936E+00  2.076285E-16  0.000000E+00 -1.387779E-16 -8.541279E+00  1.500000E+06  1.500000E+06 -1.121234E-01 -2.493741E-02  9.733898E-01  5.107101E-06  5.107101E-03  2.570901E-02  2.570901E-02  7.757244E-02  0.000000E+00 -5.324788E-07  1.095851E-07 -2.647961E-05  0.000000E+00  0.000000E+00  0.000000E+00
  0.000000E+00  0.000000E+00 -1.045133E+00  1.805932E-16  2.220446E-16 -2.220446E-16 -9.482565E+00  1.500000E+06  1.500000E+06 -1.083938E-01 -2.494783E-02  9.198957E-01  4.756946E-06  4.756946E-03  2.236144E-02  2.236144E-02  6.845144E-02  0.000000E+00 -4.069198E-07  1.028151E-07 -3.318146E-05  0.000000E+00  0.000000E+00  0.000000E+00
  0.000000E+00  0.000000E+00 -1.103529E+00  1.256812E-16  2.220446E-16 -2.498002E-16 -1.269848E+01  1.500000E+06  1.500000E+06 -9.601443E-02 -2.340290E-02  7.868964E-01  3.933353E-06  3.933353E-03  1.556212E-02  1.556212E-02  4.923544E-02  0.000000E+00 -2.104196E-07  8.646343E-08 -4.032964E-05  0.000000E+00  0.000000E+00  0.000000E+00
  0.000000E+00  0.000000E+00 -1.281765E+00  5.868073E-17  1.110223E-16 -4.440892E-16 -2.390244E+01  1.500000E+06  1.500000E+06 -6.629073E-02 -1.704491E-02  5.466248E-01  2.607556E-06  2.607556E-03  7.265977E-03  7.265977E-03  2.416742E-02  0.000000E+00 -5.468351E-08  5.865332E-08 -5.008426E-05  0.000000E+00  0.000000E+00  0.000000E+00
  0.000000E+00  0.000000E+00 -1.637612E+00  1.815539E-17 -2.220446E-16 -2.220446E-16 -4.643347E+01  1.500000E+06  1.500000E+06 -3.197474E-02 -8.433581E-03  3.121009E-01  1.459152E-06  1.459152E-03  2.248040E-03  2.248040E-03  7.820967E-03  0.000000E+00 -5.079309E-09  3.310752E-08 -3.763390E-05  0.000000E+00  0.000000E+00  0.000000E+00
  0.000000E+00  0.000000E+00 -2.084486E+00  6.345803E-18 -6.661338E-16  0.000000E+00 -7.708056E+01  1.500000E+06  1.500000E+06 -1.018791E-02 -2.630094E-03  1.780024E-01  8.707460E-07  8.707460E-04  7.857512E-04  7.857512E-04  2.710717E-03  0.000000E+00 -5.896736E-10  1.927018E-08 -2.064491E-05  0.000000E+00  0.000000E+00  0.000000E+00
  0.000000E+00  0.000000E+00 -2.653306E+00  2.599116E-18 -4.440892E-16 -2.220446E-16 -1.122619E+02  1.500000E+06  1.500000E+06 -1.252202E-03 -2.488897E-04  1.065031E-01  5.603602E-07  5.603602E-04  3.218283E-04  3.218283E-04  1.113515E-03  0.000000E+00 -9.570020E-11  1.194012E-08 -1.986420E-05 -8.386418E-05  2.788034E-04  1.686370E-06
  0.000000E+00  2.001503E-01 -1.006223E+00  2.076285E-16 -4.889844E+00  1.658297E+00 -8.377161E+00  1.500000E+06  1.500000E+06 -1.266953E-01 -2.760267E-01  9.108326E-01  5.107101E-06  5.107101E-03  2.570901E-02  2.570901E-02  7.611224E-02  0.000000E+00 -5.324788E-07  1.085115E-07 -2.604582E-05  0.000000E+00  0.000000E+00  0.000000E+00
  0.000000E+00  2.038954E-01 -1.025051E+00  1.805932E-16 -4.995657E+00  1.841049E+00 -9.300360E+00  1.500000E+06  1.500000E+06 -1.224899E-01 -2.587941E-01  8.618180E-01  4.756946E-06  4.756946E-03  2.236144E-02  2.236144E-02  6.717207E-02  0.000000E+00 -4.069198E-07  1.018328E-07 -3.105959E-05  0.000000E+00  0.000000E+00  0.000000E+00
  0.000000E+00  2.152879E-01 -1.082325E+00  1.256812E-16 -5.317997E+00  2.465422E+00 -1.245448E+01  1.500000E+06  1.500000E+06 -1.084648E-01 -2.175189E-01  7.388478E-01  3.933353E-06  3.933353E-03  1.556212E-02  1.556212E-02  4.831272E-02  0.000000E+00 -2.104196E-07  8.566515E-08 -3.628950E-05  0.000000E+00  0.000000E+00  0.000000E+00
  0.000000E+00  2.500599E-01 -1.257136E+00  5.868073E-17 -6.234468E+00  4.640681E+00 -2.344317E+01  1.500000E+06  1.500000E+06 -7.474146E-02 -1.460699E-01  5.144959E-01  2.607556E-06  2.607556E-03  7.265977E-03  7.265977E-03  2.368894E-02  0.000000E+00 -5.468351E-08  5.809701E-08 -4.490568E-05  0.000000E+00  0.000000E+00  0.000000E+00
  0.000000E+00  3.194822E-01 -1.606146E+00  1.815539E-17 -7.850799E+00  9.015101E+00 -4.554127E+01  1.500000E+06  1.500000E+06 -3.589799E-02 -7.796220E-02  2.944552E-01  1.459152E-06  1.459152E-03  2.248040E-03  2.248040E-03  7.640303E-03  0.000000E+00 -5.079309E-09  3.274080E-08 -3.605972E-05  0.000000E+00  0.000000E+00  0.000000E+00
  0.000000E+00  4.066630E-01 -2.044433E+00  6.345803E-18 -9.993143E+00  1.496526E+01 -7.559948E+01  1.500000E+06  1.500000E+06 -1.138466E-02 -3.936384E-02  1.686470E-01  8.707460E-07  8.707460E-04  7.857512E-04  7.857512E-04  2.641925E-03  0.000000E+00 -5.896736E-10  1.901714E-08 -2.158684E-05  0.000000E+00  0.000000E+00  0.000000E+00
  0.000000E+00  5.176343E-01 -2.602324E+00  2.599116E-18 -1.272008E+01  2.179575E+01 -1.101048E+02  1.500000E+06  1.500000E+06 -1.383662E-03 -2.061745E-02  1.014173E-01  5.603602E-07  5.603602E-04  3.218283E-04  3.218283E-04  1.087086E-03  0.000000E+00 -9.570020E-11  1.177106E-08 -1.925402E-05 -2.225631E-04  3.057526E-04  6.408182E-05
  0.000000E+00  3.926089E-01 -9.478417E-01  2.076285E-16 -9.591774E+00  3.252867E+00 -7.891113E+00  1.500000E+06  1.500000E+06 -1.735606E-01 -4.694865E-01  7.487972E-01  5.107101E-06  5.107101E-03  2.570901E-02  2.570901E-02  7.161569E-02  0.000000E+00 -5.324788E-07  1.050694E-07 -4.565751E-05  0.000000E+00  0.000000E+00  0.000000E+00
  0.000000E+00  3.999553E-01 -9.655774E-01  1.805932E-16 -9.799333E+00  3.611347E+00 -8.760747E+00  1.500000E+06  1.500000E+06 -1.628777E-01 -4.433638E-01  7.137125E-01  4.756946E-06  4.756946E-03  2.236144E-02  2.236144E-02  6.342805E-02  0.000000E+00 -4.069198E-07  9.884488E-08 -4.727585E-05  0.000000E+00  0.000000E+00  0.000000E+00
  0.000000E+00  4.223024E-01 -1.019528E+00  1.256812E-16 -1.043163E+01  4.836099E+00 -1.173187E+01  1.500000E+06  1.500000E+06 -1.364595E-01 -3.777648E-01  6.203352E-01  3.933353E-06  3.933353E-03  1.556212E-02  1.556212E-02  4.590244E-02  0.000000E+00 -2.104196E-07  8.351514E-08 -3.896063E-05  0.000000E+00  0.000000E+00  0.000000E+00
  0.000000E+00  4.905102E-01 -1.184196E+00  5.868073E-17 -1.222935E+01  9.103024E+00 -2.208298E+01  1.500000E+06  1.500000E+06 -8.841037E-02 -2.576215E-01  4.389190E-01  2.607556E-06  2.607556E-03  7.265977E-03  7.265977E-03  2.263979E-02  0.000000E+00 -5.468351E-08  5.685353E-08 -3.866200E-05  0.000000E+00  0.000000E+00  0.000000E+00
  0.000000E+00  6.266869E-01 -1.512956E+00  1.815539E-17 -1.539990E+01  1.768376E+01 -4.289894E+01  1.500000E+06  1.500000E+06 -4.065019E-02 -1.392328E-01  2.547288E-01  1.459152E-06  1.459152E-03  2.248040E-03  2.248040E-03  7.305638E-03  0.000000E+00 -5.079309E-09  3.203156E-08 -3.413801E-05  0.000000E+00  0.000000E+00  0.000000E+00
  0.000000E+00  7.976982E-01 -1.925814E+00  6.345803E-18 -1.960225E+01  2.935542E+01 -7.121315E+01  1.500000E+06  1.500000E+06 -1.271206E-02 -7.133971E-02  1.479862E-01  8.707460E-07  8.707460E-04  7.857512E-04  7.857512E-04  2.520107E-03  0.000000E+00 -5.896736E-10  1.854241E-08 -2.398062E-05  0.000000E+00  0.000000E+00  0.000000E+00
  0.000000E+00  1.015376E+00 -2.451335E+00  2.599116E-18 -2.495133E+01  4.275391E+01 -1.037165E+02  1.500000E+06  1.500000E+06 -1.500720E-03 -3.811556E-02  9.025782E-02  5.603602E-07  5.603602E-04  3.218283E-04  3.218283E-04  1.040830E-03  0.000000E+00 -9.570020E-11  1.145556E-08 -1.899027E-05 -3.119108E-04  3.210487E-04  1.359470E-04
  0.000000E+00  5.699797E-01 -8.530350E-01  2.076285E-16 -1.392510E+01  4.722431E+00 -7.101814E+00  1.500000E+06  1.500000E+06 -2.320959E-01 -6.054803E-01  5.578954E-01  5.107101E-06  5.107101E-03  2.570901E-02  2.570901E-02  6.851616E-02  0.000000E+00 -5.324788E-07  1.024696E-07 -5.075743E-05  0.000000E+00  0.000000E+00  0.000000E+00
  0.000000E+00  5.806450E-01 -8.689967E-01  1.805932E-16 -1.422643E+01  5.242863E+00 -7.884464E+00  1.500000E+06  1.500000E+06 -2.131120E-01 -5.756818E-01  5.324435E-01  4.756946E-06  4.756946E-03  2.236144E-02  2.236144E-02  6.062342E-02  0.000000E+00 -4.069198E-07  9.640156E-08 -4.250405E-05  0.000000E+00  0.000000E+00  0.000000E+00
  0.000000E+00  6.130880E-01 -9.175510E-01  1.256812E-16 -1.514437E+01  7.020927E+00 -1.055840E+01  1.500000E+06  1.500000E+06 -1.709088E-01 -4.963308E-01  4.641484E-01  3.933353E-06  3.933353E-03  1.556212E-02  1.556212E-02  4.375428E-02  0.000000E+00 -2.104196E-07  8.141706E-08 -2.638007E-05  0.000000E+00  0.000000E+00  0.000000E+00
  0.000000E+00  7.121104E-01 -1.065748E+00  5.868073E-17 -1.775426E+01  1.321554E+01 -1.987416E+01  1.500000E+06  1.500000E+06 -1.048775E-01 -3.420139E-01  3.308283E-01  2.607556E-06  2.607556E-03  7.265977E-03  7.265977E-03  2.145236E-02  0.000000E+00 -5.468351E-08  5.529375E-08 -2.124139E-05  0.000000E+00  0.000000E+00  0.000000E+00
  0.000000E+00  9.098083E-01 -1.361624E+00  1.815539E-17 -2.235718E+01  2.567284E+01 -3.860802E+01  1.500000E+06  1.500000E+06 -4.619480E-02 -1.852889E-01  1.955473E-01  1.459152E-06  1.459152E-03  2.248040E-03  2.248040E-03  6.847592E-03  0.000000E+00 -5.079309E-09  3.096956E-08 -2.940251E-05  0.000000E+00  0.000000E+00  0.000000E+00
  0.000000E+00  1.158078E+00 -1.733187E+00  6.345803E-18 -2.845806E+01  4.261746E+01 -6.409015E+01  1.500000E+06  1.500000E+06 -1.421648E-02 -9.474715E-02  1.175303E-01  8.707460E-07  8.707460E-04  7.857512E-04  7.857512E-04  2.349744E-03  0.000000E+00 -5.896736E-10  1.780770E-08 -2.807249E-05  0.000000E+00  0.000000E+00  0.000000E+00
  0.000000E+00  1.474098E+00 -2.206143E+00  2.599116E-18 -3.622372E+01  6.206906E+01 -9.334238E+01  1.500000E+06  1.500000E+06 -1.606989E-03 -5.065328E-02  7.402000E-02  5.603602E-07  5.603602E-04  3.218283E-04  3.218283E-04  9.761460E-04  0.000000E+00 -9.570020E-11  1.096333E-08 -1.843701E-05 -4.317847E-04  3.242533E-04  2.191316E-04
  0.000000E+00  7.254466E-01 -7.254466E-01  2.076285E-16 -1.772329E+01  6.010514E+00 -6.039597E+00  1.500000E+06  1.500000E+06 -2.581795E-01 -7.119997E-01  3.245340E-01  5.107101E-06  5.107101E-03  2.570901E-02  2.570901E-02  6.677428E-02  0.000000E+00 -5.324788E-07  1.008794E-07 -5.673035E-05  0.000000E+00  0.000000E+00  0.000000E+00
  0.000000E+00  7.390209E-01 -7.390209E-01  1.805932E-16 -1.810681E+01  6.672898E+00 -6.705186E+00  1.500000E+06  1.500000E+06 -2.378170E-01 -6.740778E-01  3.074776E-01  4.756946E-06  4.756946E-03  2.236144E-02  2.236144E-02  5.874639E-02  0.000000E+00 -4.069198E-07  9.461939E-08 -4.353277E-05  0.000000E+00  0.000000E+00  0.000000E+00
  0.000000E+00  7.803130E-01 -7.803130E-01  1.256812E-16 -1.927513E+01  8.935946E+00 -8.979183E+00  1.500000E+06  1.500000E+06 -1.918849E-01 -5.758679E-01  2.657405E-01  3.933353E-06  3.933353E-03  1.556212E-02  1.556212E-02  4.188877E-02  0.000000E+00 -2.104196E-07  7.940013E-08 -2.898318E-05  0.000000E+00  0.000000E+00  0.000000E+00
  0.000000E+00  9.063446E-01 -9.063446E-01  5.868073E-17 -2.259689E+01  1.682019E+01 -1.690158E+01  1.500000E+06  1.500000E+06 -1.184320E-01 -3.915034E-01  1.917925E-01  2.607556E-06  2.607556E-03  7.265977E-03  7.265977E-03  2.015901E-02  0.000000E+00 -5.468351E-08  5.337673E-08 -1.821541E-05  0.000000E+00  0.000000E+00  0.000000E+00
  0.000000E+00  1.157966E+00 -1.157966E+00  1.815539E-17 -2.845530E+01  3.267532E+01 -3.283342E+01  1.500000E+06  1.500000E+06 -5.216729E-02 -2.090694E-01  1.204484E-01  1.459152E-06  1.459152E-03  2.248040E-03  2.248040E-03  6.287466E-03  0.000000E+00 -5.079309E-09  2.949219E-08 -3.223503E-05  0.000000E+00  0.000000E+00  0.000000E+00
  0.000000E+00  1.473954E+00 -1.473954E+00  6.345803E-18 -3.622024E+01  5.424174E+01 -5.450419E+01  1.500000E+06  1.500000E+06 -1.592114E-02 -1.059473E-01  7.988826E-02  8.707460E-07  8.707460E-04  7.857512E-04  7.857512E-04  2.139730E-03  0.000000E+00 -5.896736E-10  1.674934E-08 -3.518972E-05  0.000000E+00  0.000000E+00  0.000000E+00
  0.000000E+00  1.876171E+00 -1.876171E+00  2.599116E-18 -4.610405E+01  7.899893E+01 -7.938117E+01  1.500000E+06  1.500000E+06 -1.708509E-03 -5.634643E-02  5.434470E-02  5.603602E-07  5.603602E-04  3.218283E-04  3.218283E-04  8.963620E-04  0.000000E+00 -9.570020E-11  1.024305E-08 -1.795820E-05 -5.685598E-04  3.115260E-04  3.132854E-04
  0.000000E+00  7.071068E-01 -7.071068E-01  1.459525E-13 -1.728420E+01  1.110223E-15  0.000000E+00  5.000000E+04  5.000000E+04 -2.840064E-01 -7.576714E-01  3.455429E-01  1.354287E-04  1.354287E-01  6.024053E-01  6.024053E-01  9.357034E-01  0.000000E+00 -4.239735E-03  1.321726E-08 -2.802435E-05  0.000000E+00  0.000000E+00  0.000000E+00
  0.000000E+00  7.098771E-01 -7.098771E-01  8.700198E-14 -1.731799E+01  9.992007E-16  0.000000E+00  5.000000E+04  5.000000E+04 -2.820186E-01 -7.541563E-01  3.439260E-01  9.740042E-05  9.740042E-02  3.590925E-01  3.590925E-01  5.704200E-01  0.000000E+00 -2.198174E-03  1.096294E-08 -3.507137E-05  0.000000E+00  0.000000E+00  0.000000E+00
  0.000000E+00  7.126476E-01 -7.126476E-01  1.675615E-14 -1.738558E+01  9.992007E-16  0.000000E+00  5.000000E+04  5.000000E+04 -2.780432E-01 -7.471262E-01  3.406922E-01  4.278405E-05  4.278405E-02  6.915943E-02  6.915943E-02  1.348950E-01  0.000000E+00 -8.127388E-05  7.232352E-09 -5.260686E-05  0.000000E+00  0.000000E+00  0.000000E+00
  0.000000E+00  7.154180E-01 -7.154180E-01  3.268714E-15 -1.745317E+01  1.054712E-15  0.000000E+00  5.000000E+04  5.000000E+04 -2.740677E-01 -7.400961E-01  3.374583E-01  1.891367E-05  1.891367E-02  1.349131E-02  1.349131E-02  5.077407E-02  0.000000E+00 -3.082931E-06  4.786249E-09 -7.865621E-05  0.000000E+00  0.000000E+00  0.000000E+00
  0.000000E+00  7.181885E-01 -7.181885E-01  6.491286E-16 -1.752075E+01  2.866333E+00 -2.880202E+00  7.750000E+05  7.750000E+05 -2.700923E-01 -7.330661E-01  3.342245E-01  8.454578E-06  8.454578E-03  1.594518E-02  1.594518E-02  5.387970E-02  0.000000E+00 -4.183786E-07  5.384523E-08 -2.872836E-03  0.000000E+00  0.000000E+00  0.000000E+00
  0.000000E+00  7.209589E-01 -7.209589E-01  2.184772E-16 -1.759147E+01  5.792823E+00 -5.820852E+00  1.500000E+06  1.500000E+06 -2.659326E-01 -7.257101E-01  3.308408E-01  5.239580E-06  5.239580E-03  2.705233E-02  2.705233E-02  6.994444E-02  0.000000E+00 -5.889007E-07  1.032103E-07 -2.857813E-03  0.000000E+00  0.000000E+00  0.000000E+00
  0.000000E+00  7.254466E-01 -7.254466E-01  2.076285E-16 -1.772329E+01  6.010514E+00 -6.039597E+00  1.500000E+06  1.500000E+06 -2.581795E-01 -7.119997E-01  3.245340E-01  5.107101E-06  5.107101E-03  2.570901E-02  2.570901E-02  6.677428E-02  0.000000E+00 -5.324788E-07  1.008794E-07 -5.673035E-05  0.000000E+00  0.000000E+00  0.000000E+00
  0.000000E+00  8.314696E-01 -5.555702E-01  1.459525E-13 -2.032407E+01  1.110223E-15  0.000000E+00  5.000000E+04  5.000000E+04 -2.775221E-01 -7.873692E-01  4.561576E-03  1.354287E-04  1.354287E-01  6.024053E-01  6.024053E-01  9.332268E-01  0.000000E+00 -4.239735E-03  1.296202E-08 -2.748317E-05  0.000000E+00  0.000000E+00  0.000000E+00
  0.000000E+00  8.347272E-01 -5.577469E-01  8.700198E-14 -2.036381E+01  1.332268E-15  0.000000E+00  5.000000E+04  5.000000E+04 -2.760246E-01 -7.831127E-01  4.613007E-03  9.740042E-05  9.740042E-02  3.590925E-01  3.590925E-01  5.679369E-01  0.000000E+00 -2.198174E-03  1.074881E-08 -3.438235E-05  0.000000E+00  0.000000E+00  0.000000E+00
  0.000000E+00  8.379849E-01 -5.599236E-01  1.675615E-14 -2.044328E+01  1.332268E-15  0.000000E+00  5.000000E+04  5.000000E+04 -2.730296E-01 -7.745996E-01  4.715870E-03  4.278405E-05  4.278405E-02  6.915943E-02  6.915943E-02  1.323993E-01  0.000000E+00 -8.127388E-05  7.087010E-09 -5.154362E-05  0.000000E+00  0.000000E+00  0.000000E+00
  0.000000E+00  8.412426E-01 -5.621004E-01  3.268714E-15 -2.052275E+01  1.332268E-15  0.000000E+00  5.000000E+04  5.000000E+04 -2.700346E-01 -7.660866E-01  4.818733E-03  1.891367E-05  1.891367E-02  1.349131E-02  1.349131E-02  4.826627E-02  0.000000E+00 -3.082931E-06  4.687309E-09 -7.702107E-05  0.000000E+00  0.000000E+00  0.000000E+00
  0.000000E+00  8.445003E-01 -5.642771E-01  6.491286E-16 -2.060223E+01  3.370451E+00 -2.262960E+00  7.750000E+05  7.750000E+05 -2.670396E-01 -7.575735E-01  4.921596E-03  8.454578E-06  8.454578E-03  1.594518E-02  1.594518E-02  5.136052E-02  0.000000E+00 -4.183786E-07  5.268236E-08 -2.805899E-03  0.000000E+00  0.000000E+00  0.000000E+00
  0.000000E+00  8.477580E-01 -5.664538E-01  2.184772E-16 -2.068539E+01  6.811639E+00 -4.573414E+00  1.500000E+06  1.500000E+06 -2.639058E-01 -7.486659E-01  5.029227E-03  5.239580E-06  5.239580E-03  2.705233E-02  2.705233E-02  6.741406E-02  0.000000E+00 -5.889007E-07  1.009451E-07 -2.800121E-03  0.000000E+00  0.000000E+00  0.000000E+00
  0.000000E+00  8.530350E-01 -5.699797E-01  2.076285E-16 -2.084038E+01  7.067617E+00 -4.745281E+00  1.500000E+06  1.500000E+06 -2.580647E-01 -7.320633E-01  5.229836E-03  5.107101E-06  5.107101E-03  2.570901E-02  2.570901E-02  6.422545E-02  0.000000E+00 -5.324788E-07  9.854286E-08 -7.163580E-05  0.000000E+00  0.000000E+00  0.000000E+00
  0.000000E+00  9.238795E-01 -3.826834E-01  1.459525E-13 -2.258290E+01  1.554312E-15  0.000000E+00  5.000000E+04  5.000000E+04 -2.975635E-01 -6.121556E-01 -4.187558E-01  1.354287E-04  1.354287E-01  6.024053E-01  6.024053E-01  9.323285E-01  0.000000E+00 -4.239735E-03  1.287596E-08 -2.730070E-05  0.000000E+00  0.000000E+00  0.000000E+00